 vasp.6.2.0 18Jan21 (build Jun  7 2022 01:23:08) complex                         
 executed on             LinuxPGI date 2022.06.07  14:42:01
 running on   16 total cores
 distrk:  each k-point on   16 cores,    1 groups
 distr:  one band on NCORE=   1 cores,   16 groups


--------------------------------------------------------------------------------------------------------


 INCAR:
   ENCUT = 350.000000
   ZAB_VDW = -1.886700
   GGA = BF
   IBRION = 2
   ISMEAR = 0
   NSW = 0
   LUSE_VDW = .TRUE.
   LBEEFENS = .TRUE.

 POTCAR:    PAW_PBE H 15Jun2001                   
 -----------------------------------------------------------------------------
|                                                                             |
|           W    W    AA    RRRRR   N    N  II  N    N   GGGG   !!!           |
|           W    W   A  A   R    R  NN   N  II  NN   N  G    G  !!!           |
|           W    W  A    A  R    R  N N  N  II  N N  N  G       !!!           |
|           W WW W  AAAAAA  RRRRR   N  N N  II  N  N N  G  GGG   !            |
|           WW  WW  A    A  R   R   N   NN  II  N   NN  G    G                |
|           W    W  A    A  R    R  N    N  II  N    N   GGGG   !!!           |
|                                                                             |
|     For optimal performance we recommend to set                             |
|       NCORE = 2 up to number-of-cores-per-socket                            |
|     NCORE specifies how many cores store one orbital (NPAR=cpu/NCORE).      |
|     This setting can greatly improve the performance of VASP for DFT.       |
|     The default, NCORE=1 might be grossly inefficient on modern             |
|     multi-core architectures or massively parallel machines. Do your        |
|     own testing! More info at https://www.vasp.at/wiki/index.php/NCORE      |
|     Unfortunately you need to use the default for GW and RPA                |
|     calculations (for HF NCORE is supported but not extensively tested      |
|     yet).                                                                   |
|                                                                             |
 -----------------------------------------------------------------------------

 -----------------------------------------------------------------------------
|                                                                             |
|               ----> ADVICE to this user running VASP <----                  |
|                                                                             |
|     You have switched on vdW-DFT.                                           |
|     This routine was written and supplied by Jiri Klimes. We recommend      |
|     that you carefully read and cite the following publications:            |
|       J. Klimes, D.R. Bowler, A. Michelides                                 |
|          J. Phys.: Cond Matt. 22 022201 (2010)                              |
|       J. Klimes, D.R. Bowler, A. Michelides                                 |
|          Phys. Rev. B. 83, 195131 (2011)                                    |
|     and references therein.                                                 |
|                                                                             |
 -----------------------------------------------------------------------------

 POTCAR:    PAW_PBE H 15Jun2001                   
   SHA256 =  030f79b5d3ab3cf0e668861823c8fb652ff669f3e15e46930bd03bfd63a607b6 H/POTCAR              
   COPYR  = (c) Copyright 15Jun2001 Georg Kresse                                                    
   COPYR  = This file is part of the software VASP. Any use, copying, and all other rights are regul
   COPYR  = If you do not have a valid VASP license, you may not use, copy or distribute this file. 
   VRHFIN =H: ultrasoft test                                                                        
   LEXCH  = PE                                                                                      
   EATOM  =    12.4884 eV,    0.9179 Ry                                                             
                                                                                                    
   TITEL  = PAW_PBE H 15Jun2001                                                                     
   LULTRA =        F    use ultrasoft PP ?                                                          
   IUNSCR =        0    unscreen: 0-lin 1-nonlin 2-no                                               
   RPACOR =    0.000    partial core radius                                                         
   POMASS =    1.000; ZVAL   =    1.000    mass and valenz                                          
   RCORE  =    1.100    outmost cutoff radius                                                       
   RWIGS  =    0.700; RWIGS  =    0.370    wigner-seitz radius (au A)                               
   ENMAX  =  250.000; ENMIN  =  200.000 eV                                                          
   RCLOC  =    0.701    cutoff for local pot                                                        
   LCOR   =        T    correct aug charges                                                         
   LPAW   =        T    paw PP                                                                      
   EAUG   =  400.000                                                                                
   RMAX   =    1.123    core radius for proj-oper                                                   
   RAUG   =    1.200    factor for augmentation sphere                                              
   RDEP   =    1.112    radius for radial grids                                                     
   RDEPT  =    0.926    core radius for aug-charge                                                  
                                                                                                    
   Atomic configuration                                                                             
    2 entries                                                                                       
     n  l   j            E        occ.                                                              
     1  0  0.50        -6.4927   1.0000                                                             
     2  1  0.50        -3.4015   0.0000                                                             
   Description                                                                                      
     l       E           TYP  RCUT    TYP  RCUT                                                     
     0     -6.4927494     23  1.100                                                                 
     0      6.8029130     23  1.100                                                                 
     1     -4.0817478     23  1.100                                                                 
  local pseudopotential read in
  atomic valenz-charges read in
  non local Contribution for L=            0  read in
    real space projection operators read in
  non local Contribution for L=            0  read in
    real space projection operators read in
  non local Contribution for L=            1  read in
    real space projection operators read in
    PAW grid and wavefunctions read in
 
   number of l-projection  operators is LMAX  =            3
   number of lm-projection operators is LMMAX =            5
 
 -----------------------------------------------------------------------------
|                                                                             |
|               ----> ADVICE to this user running VASP <----                  |
|                                                                             |
|     You enforced a specific xc type in the INCAR file but a different       |
|     type was found in the POTCAR file.                                      |
|     I HOPE YOU KNOW WHAT YOU ARE DOING!                                     |
|                                                                             |
 -----------------------------------------------------------------------------

  PAW_PBE H 15Jun2001                   :
 energy of atom  1       EATOM=  -12.4884
 kinetic energy error for atom=    0.0203 (will be added to EATOM!!)
 
 
 POSCAR:  H
  positions in cartesian coordinates
  No initial velocities read in
 exchange correlation table for  LEXCH =       17
   RHO(1)=    0.500       N(1)  =     2000
   RHO(2)=  100.500       N(2)  =     4000
 


--------------------------------------------------------------------------------------------------------


 ion  position               nearest neighbor table
   1  0.500  0.500  0.546-   2 0.74
   2  0.500  0.500  0.454-   1 0.74
 
  LATTYP: Found a simple cubic cell.
 ALAT       =     8.0000000000
  
  Lattice vectors:
  
 A1 = (   8.0000000000,   0.0000000000,   0.0000000000)
 A2 = (   0.0000000000,   8.0000000000,   0.0000000000)
 A3 = (   0.0000000000,   0.0000000000,   8.0000000000)


Analysis of symmetry for initial positions (statically):
=====================================================================
 Subroutine PRICEL returns:
 Original cell was already a primitive cell.
 

 Routine SETGRP: Setting up the symmetry group for a 
 simple cubic supercell.


 Subroutine GETGRP returns: Found 16 space group operations
 (whereof 16 operations were pure point group operations)
 out of a pool of 48 trial point group operations.


The static configuration has the point symmetry D_4h.


Analysis of symmetry for dynamics (positions and initial velocities):
=====================================================================
 Subroutine PRICEL returns:
 Original cell was already a primitive cell.
 

 Routine SETGRP: Setting up the symmetry group for a 
 simple cubic supercell.


 Subroutine GETGRP returns: Found 16 space group operations
 (whereof 16 operations were pure point group operations)
 out of a pool of 48 trial point group operations.


The dynamic configuration has the point symmetry D_4h.


 Subroutine INISYM returns: Found 16 space group operations
 (whereof 16 operations are pure point group operations),
 and found     1 'primitive' translations


----------------------------------------------------------------------------------------

                                     Primitive cell                                     

  volume of cell :     512.0000

  direct lattice vectors                    reciprocal lattice vectors
     8.000000000  0.000000000  0.000000000     0.125000000  0.000000000  0.000000000
     0.000000000  8.000000000  0.000000000     0.000000000  0.125000000  0.000000000
     0.000000000  0.000000000  8.000000000     0.000000000  0.000000000  0.125000000

  length of vectors
     8.000000000  8.000000000  8.000000000     0.125000000  0.125000000  0.125000000

  position of ions in fractional coordinates (direct lattice)
     0.500000000  0.500000000  0.546072875
     0.500000000  0.500000000  0.453927125

  ion indices of the primitive-cell ions
   primitive index   ion index
                 1           1
                 2           2

----------------------------------------------------------------------------------------

 
 
 KPOINTS: KPOINTS created by Atomic Simulation Env

Automatic generation of k-mesh.
 Grid dimensions read from file:
 generate k-points for:    1    1    1

 Generating k-lattice:

  Cartesian coordinates                     Fractional coordinates (reciprocal lattice)
     0.125000000  0.000000000  0.000000000     1.000000000  0.000000000  0.000000000
     0.000000000  0.125000000  0.000000000     0.000000000  1.000000000  0.000000000
     0.000000000  0.000000000  0.125000000     0.000000000  0.000000000  1.000000000

  Length of vectors
     0.125000000  0.125000000  0.125000000

  Shift w.r.t. Gamma in fractional coordinates (k-lattice)
     0.000000000  0.000000000  0.000000000

 
 Subroutine IBZKPT returns following result:
 ===========================================
 
 Found      1 irreducible k-points:
 
 Following reciprocal coordinates:
            Coordinates               Weight
  0.000000  0.000000  0.000000      1.000000
 
 Following cartesian coordinates:
            Coordinates               Weight
  0.000000  0.000000  0.000000      1.000000
 


--------------------------------------------------------------------------------------------------------




 Dimension of arrays:
   k-points           NKPTS =      1   k-points in BZ     NKDIM =      1   number of bands    NBANDS=     16
   number of dos      NEDOS =    301   number of ions     NIONS =      2
   non local maximal  LDIM  =      3   non local SUM 2l+1 LMDIM =      5
   total plane-waves  NPLWV =  64000
   max r-space proj   IRMAX =      1   max aug-charges    IRDMAX=    807
   dimension x,y,z NGX =    40 NGY =   40 NGZ =   40
   dimension x,y,z NGXF=    80 NGYF=   80 NGZF=   80
   support grid    NGXF=    80 NGYF=   80 NGZF=   80
   ions per type =               2
   NGX,Y,Z   is equivalent  to a cutoff of   8.31,  8.31,  8.31 a.u.
   NGXF,Y,Z  is equivalent  to a cutoff of  16.62, 16.62, 16.62 a.u.

 SYSTEM =  unknown system                          
 POSCAR =   H                                      

 Startparameter for this run:
   NWRITE =      2    write-flag & timer
   PREC   = normal    normal or accurate (medium, high low for compatibility)
   ISTART =      1    job   : 0-new  1-cont  2-samecut
   ICHARG =      0    charge: 1-file 2-atom 10-const
   ISPIN  =      1    spin polarized calculation?
   LNONCOLLINEAR =      F non collinear calculations
   LSORBIT =      F    spin-orbit coupling
   INIWAV =      1    electr: 0-lowe 1-rand  2-diag
   LASPH  =      F    aspherical Exc in radial PAW
   METAGGA=      F    non-selfconsistent MetaGGA calc.

 Electronic Relaxation 1
   ENCUT  =  350.0 eV  25.72 Ry    5.07 a.u.  12.20 12.20 12.20*2*pi/ulx,y,z
   ENINI  =  350.0     initial cutoff
   ENAUG  =  400.0 eV  augmentation charge cutoff
   NELM   =     60;   NELMIN=  2; NELMDL=  0     # of ELM steps 
   EDIFF  = 0.1E-03   stopping-criterion for ELM
   LREAL  =      F    real-space projection
   NLSPLINE    = F    spline interpolate recip. space projectors
   LCOMPAT=      F    compatible to vasp.4.4
   GGA_COMPAT  = T    GGA compatible to vasp.4.4-vasp.4.6
   LMAXPAW     = -100 max onsite density
   LMAXMIX     =    2 max onsite mixed and CHGCAR
   VOSKOWN=      0    Vosko Wilk Nusair interpolation
   ROPT   =    0.00000
 Ionic relaxation
   EDIFFG = 0.1E-02   stopping-criterion for IOM
   NSW    =      0    number of steps for IOM
   NBLOCK =      1;   KBLOCK =      1    inner block; outer block 
   IBRION =     -1    ionic relax: 0-MD 1-quasi-New 2-CG
   NFREE  =      1    steps in history (QN), initial steepest desc. (CG)
   ISIF   =      2    stress and relaxation
   IWAVPR =     10    prediction:  0-non 1-charg 2-wave 3-comb
   ISYM   =      2    0-nonsym 1-usesym 2-fastsym
   LCORR  =      T    Harris-Foulkes like correction to forces

   POTIM  = 0.5000    time-step for ionic-motion
   TEIN   =    0.0    initial temperature
   TEBEG  =    0.0;   TEEND  =   0.0 temperature during run
   SMASS  =  -3.00    Nose mass-parameter (am)
   estimated Nose-frequenzy (Omega)   =  0.10E-29 period in steps = 0.13E+47 mass=  -0.146E-26a.u.
   SCALEE = 1.0000    scale energy and forces
   NPACO  =    256;   APACO  = 16.0  distance and # of slots for P.C.
   PSTRESS=    0.0 pullay stress

  Mass of Ions in am
   POMASS =   1.00
  Ionic Valenz
   ZVAL   =   1.00
  Atomic Wigner-Seitz radii
   RWIGS  =  -1.00
  virtual crystal weights 
   VCA    =   1.00
   NELECT =       2.0000    total number of electrons
   NUPDOWN=      -1.0000    fix difference up-down

 DOS related values:
   EMIN   =  10.00;   EMAX   =-10.00  energy-range for DOS
   EFERMI =   0.00
   ISMEAR =     0;   SIGMA  =   0.20  broadening in eV -4-tet -1-fermi 0-gaus

 Electronic relaxation 2 (details)
   IALGO  =     38    algorithm
   LDIAG  =      T    sub-space diagonalisation (order eigenvalues)
   LSUBROT=      F    optimize rotation matrix (better conditioning)
   TURBO    =      0    0=normal 1=particle mesh
   IRESTART =      0    0=no restart 2=restart with 2 vectors
   NREBOOT  =      0    no. of reboots
   NMIN     =      0    reboot dimension
   EREF     =   0.00    reference energy to select bands
   IMIX   =      4    mixing-type and parameters
     AMIX     =   0.40;   BMIX     =  1.00
     AMIX_MAG =   1.60;   BMIX_MAG =  1.00
     AMIN     =   0.10
     WC   =   100.;   INIMIX=   1;  MIXPRE=   1;  MAXMIX= -45

 Intra band minimization:
   WEIMIN = 0.0000     energy-eigenvalue tresh-hold
   EBREAK =  0.16E-05  absolut break condition
   DEPER  =   0.30     relativ break condition  

   TIME   =   0.40     timestep for ELM

  volume/ion in A,a.u.               =     256.00      1727.57
  Fermi-wavevector in a.u.,A,eV,Ry     =   0.257827  0.487222  0.904443  0.066475
  Thomas-Fermi vector in A             =   1.082725
 
 Write flags
   LWAVE        =      T    write WAVECAR
   LDOWNSAMPLE  =      F    k-point downsampling of WAVECAR
   LCHARG       =      T    write CHGCAR
   LVTOT        =      F    write LOCPOT, total local potential
   LVHAR        =      F    write LOCPOT, Hartree potential only
   LELF         =      F    write electronic localiz. function (ELF)
   LORBIT       =      0    0 simple, 1 ext, 2 COOP (PROOUT), +10 PAW based schemes


 Dipole corrections
   LMONO  =      F    monopole corrections only (constant potential shift)
   LDIPOL =      F    correct potential (dipole corrections)
   IDIPOL =      0    1-x, 2-y, 3-z, 4-all directions 
   EPSILON=  1.0000000 bulk dielectric constant

 Exchange correlation treatment:
   GGA     =    BF    GGA type
   LEXCH   =    17    internal setting for exchange type
   VOSKOWN=      0    Vosko Wilk Nusair interpolation
   LHFCALC =     F    Hartree Fock is set to
   LHFONE  =     F    Hartree Fock one center treatment
   AEXX    =    0.0000 exact exchange contribution

 vdW DFT:
   LUSE_VDW   =     T    switch on vdW DFT
   Zab_VDW    =******    correlation parameter
   PARAM1     =0.1234
   PARAM2     =1.0000
   PARAM3     =0.0000
   -- rVV10 --
   BPARAM     = 6.3000
   CPARAM     = 0.0093

 Linear response parameters
   LEPSILON=     F    determine dielectric tensor
   LRPA    =     F    only Hartree local field effects (RPA)
   LNABLA  =     F    use nabla operator in PAW spheres
   LVEL    =     F    velocity operator in full k-point grid
   LINTERFAST=   F  fast interpolation
   KINTER  =     0    interpolate to denser k-point grid
   CSHIFT  =0.1000    complex shift for real part using Kramers Kronig
   OMEGAMAX=  -1.0    maximum frequency
   DEG_THRESHOLD= 0.2000000E-02 threshold for treating states as degnerate
   RTIME   =   -0.100 relaxation time in fs
  (WPLASMAI=    0.000 imaginary part of plasma frequency in eV, 0.658/RTIME)
   DFIELD  = 0.0000000 0.0000000 0.0000000 field for delta impulse in time
 
 Orbital magnetization related:
   ORBITALMAG=     F  switch on orbital magnetization
   LCHIMAG   =     F  perturbation theory with respect to B field
   DQ        =  0.001000  dq finite difference perturbation B field
   LLRAUG    =     F  two centre corrections for induced B field



--------------------------------------------------------------------------------------------------------


 Static calculation
 charge density and potential will be updated during run
 non-spin polarized calculation
 Variant of blocked Davidson
 Davidson routine will perform the subspace rotation
 perform sub-space diagonalisation
    after iterative eigenvector-optimisation
 modified Broyden-mixing scheme, WC =      100.0
 initial mixing is a Kerker type mixing with AMIX =  0.4000 and BMIX =      1.0000
 Hartree-type preconditioning will be used
 using additional bands            15
 reciprocal scheme for non local part
 calculate Harris-corrections to forces 
   (improved forces if not selfconsistent)
 use gradient corrections 
 use of overlap-Matrix (Vanderbilt PP)
 Gauss-broadening in eV      SIGMA  =   0.20


--------------------------------------------------------------------------------------------------------


  energy-cutoff  :      350.00
  volume of cell :      512.00
      direct lattice vectors                 reciprocal lattice vectors
     8.000000000  0.000000000  0.000000000     0.125000000  0.000000000  0.000000000
     0.000000000  8.000000000  0.000000000     0.000000000  0.125000000  0.000000000
     0.000000000  0.000000000  8.000000000     0.000000000  0.000000000  0.125000000

  length of vectors
     8.000000000  8.000000000  8.000000000     0.125000000  0.125000000  0.125000000


 
 old parameters found on file WAVECAR:
  energy-cutoff  :      350.00
  volume of cell :      512.00
      direct lattice vectors                 reciprocal lattice vectors
     8.000000000  0.000000000  0.000000000     0.125000000  0.000000000  0.000000000
     0.000000000  8.000000000  0.000000000     0.000000000  0.125000000  0.000000000
     0.000000000  0.000000000  8.000000000     0.000000000  0.000000000  0.125000000

  length of vectors

 
 k-points in units of 2pi/SCALE and weight: KPOINTS created by Atomic Simulation Env
   0.00000000  0.00000000  0.00000000       1.000
 
 k-points in reciprocal lattice and weights: KPOINTS created by Atomic Simulation Env
   0.00000000  0.00000000  0.00000000       1.000
 
 position of ions in fractional coordinates (direct lattice) 
   0.50000000  0.50000000  0.54607288
   0.50000000  0.50000000  0.45392712
 
 position of ions in cartesian coordinates  (Angst):
   4.00000000  4.00000000  4.36858300
   4.00000000  4.00000000  3.63141700
 


--------------------------------------------------------------------------------------------------------


 k-point   1 :   0.0000 0.0000 0.0000  plane waves:    7521

 maximum and minimum number of plane-waves per node :      7521     7521

 maximum number of plane-waves:      7521
 maximum index in each direction: 
   IXMAX=   12   IYMAX=   12   IZMAX=   12
   IXMIN=  -12   IYMIN=  -12   IZMIN=  -12


 serial   3D FFT for wavefunctions
 parallel 3D FFT for charge:
    minimum data exchange during FFTs selected (reduces bandwidth)


 total amount of memory used by VASP MPI-rank0    36188. kBytes
=======================================================================

   base      :      30000. kBytes
   nonl-proj :        542. kBytes
   fftplans  :       1377. kBytes
   grid      :       4147. kBytes
   one-center:          2. kBytes
   wavefun   :        120. kBytes
 
     INWAV:  cpu time    0.1133: real time    0.1134
 Broyden mixing: mesh for mixing (old mesh)
   NGX = 25   NGY = 25   NGZ = 25
  (NGX  = 80   NGY  = 80   NGZ  = 80)
  gives a total of  15625 points

 charge density for first step will be calculated from the start-wavefunctions


--------------------------------------------------------------------------------------------------------


 Maximum index for augmentation-charges             0 (set IRDMAX)


--------------------------------------------------------------------------------------------------------


 initial charge from wavefunction
 First call to EWALD:  gamma=   0.222
 Maximum number of real-space cells 3x 3x 3
 Maximum number of reciprocal cells 3x 3x 3

    FEWALD:  cpu time    0.0010: real time    0.0010


--------------------------------------- Iteration      1(   1)  ---------------------------------------


vdW kernel read from vdw_kernel.bindat
  0.0000  0.2424  0.5071  0.7962  1.1119  1.4567  1.8333  2.2446  2.6937  3.1842
  3.7199  4.3049  4.9438  5.6415  6.4036  7.2358  8.1446  9.1372 10.2212 11.4050
 12.6979 14.1099 15.6519 17.3360 19.1751 21.1837 23.3773 25.7729 28.3892 31.2465
 34.3669 37.7748 41.4965 45.5611 50.0000
 
    POTLOK:  cpu time    1.4824: real time    1.5199
    SETDIJ:  cpu time    0.0017: real time    0.0018
     EDDAV:  cpu time    0.0126: real time    0.0129
       DOS:  cpu time    0.0004: real time    0.0004
    CHARGE:  cpu time    0.0140: real time    0.0140
    MIXING:  cpu time    0.0012: real time    0.0013
    --------------------------------------------
      LOOP:  cpu time    1.5123: real time    1.5503

 eigenvalue-minimisations  :    16
 total energy-change (2. order) :-0.7133303E+01  (-0.9130474E-12)
 number of electron       2.0000017 magnetization 
 augmentation part        0.0425572 magnetization 

 Broyden mixing:
  rms(total) = 0.88980E-08    rms(broyden)= 0.88918E-08
  rms(prec ) = 0.13369E-07
  weight for this iteration     100.00

 Free energy of the ion-electron system (eV)
  ---------------------------------------------------
  alpha Z        PSCENC =         0.01903256
  Ewald energy   TEWEN  =         9.35227488
  -Hartree energ DENC   =       -25.98571252
  -exchange      EXHF   =         0.00000000
  -V(xc)+E(xc)   XCENC  =         5.24042647
  PAW double counting   =        25.65442670      -25.71671887
  entropy T*S    EENTRO =        -0.00000000
  eigenvalues    EBANDS =       -21.45109967
  atomic energy  EATOM  =        25.75406747
  Solvation  Ediel_sol  =         0.00000000
  ---------------------------------------------------
  free energy    TOTEN  =        -7.13330300 eV

  energy without entropy =       -7.13330300  energy(sigma->0) =       -7.13330300


--------------------------------------------------------------------------------------------------------




--------------------------------------- Iteration      1(   2)  ---------------------------------------


    POTLOK:  cpu time    0.8879: real time    0.8889
    SETDIJ:  cpu time    0.0016: real time    0.0016
     EDDAV:  cpu time    0.0112: real time    0.0112
       DOS:  cpu time    0.0002: real time    0.0002
    --------------------------------------------
      LOOP:  cpu time    0.9009: real time    0.9020

 eigenvalue-minimisations  :    16
 total energy-change (2. order) : 0.3552714E-12  (-0.4938272E-12)
 number of electron       2.0000017 magnetization 
 augmentation part        0.0425572 magnetization 

 Free energy of the ion-electron system (eV)
  ---------------------------------------------------
  alpha Z        PSCENC =         0.01903256
  Ewald energy   TEWEN  =         9.35227488
  -Hartree energ DENC   =       -25.98571260
  -exchange      EXHF   =         0.00000000
  -V(xc)+E(xc)   XCENC  =         5.24042648
  PAW double counting   =        25.65442686      -25.71671903
  entropy T*S    EENTRO =        -0.00000000
  eigenvalues    EBANDS =       -21.45109961
  atomic energy  EATOM  =        25.75406747
  Solvation  Ediel_sol  =         0.00000000
  ---------------------------------------------------
  free energy    TOTEN  =        -7.13330300 eV

  energy without entropy =       -7.13330300  energy(sigma->0) =       -7.13330300


--------------------------------------------------------------------------------------------------------




 average (electrostatic) potential at core
  the test charge radii are     0.5201
  (the norm of the test charge is              1.0000)
       1 -42.8405       2 -42.8405
 
 
 
 E-fermi :  -9.8094     XC(G=0):  -0.8439     alpha+bet : -0.1079

 Fermi energy:        -9.8093696513

 k-point     1 :       0.0000    0.0000    0.0000
  band No.  band energies     occupation 
      1     -10.7255      2.00000
      2      -0.4393      0.00000
      3       0.2787      0.00000
      4       1.0828      0.00000
      5       1.0828      0.00000
      6       1.8344      0.00000
      7       1.8991      0.00000
      8       2.1589      0.00000
      9       2.9091      0.00000
     10       3.4027      0.00000
     11       3.4027      0.00000
     12       3.8301      0.00000
     13       3.8301      0.00000
     14       4.2209      0.00000
     15       4.2776      0.00000
     16       4.2926      0.00000


--------------------------------------------------------------------------------------------------------


 soft charge-density along one line, spin component            1
         0         1         2         3         4         5         6         7         8         9
 total charge-density along one line
 
 pseudopotential strength for first ion, spin component:            1
 -2.361  -4.072   0.000   0.002  -0.000
 -4.072  -6.938   0.000   0.006  -0.000
  0.000   0.000  -0.345   0.000   0.000
  0.002   0.006   0.000  -0.339  -0.000
 -0.000  -0.000   0.000  -0.000  -0.345
 total augmentation occupancy for first ion, spin component:            1
  3.249  -0.518   0.000  -0.405   0.000
 -0.518   0.083   0.000   0.065   0.000
  0.000   0.000   0.000   0.000  -0.000
 -0.405   0.065   0.000   0.051   0.000
  0.000   0.000   0.000   0.000   0.000


------------------------ aborting loop because EDIFF is reached ----------------------------------------


    CHARGE:  cpu time    0.0132: real time    0.0132
    FORLOC:  cpu time    0.0013: real time    0.0013
    FORNL :  cpu time    0.0020: real time    0.0020
    STRESS:  cpu time    0.0342: real time    0.0342
    FORHAR:  cpu time    0.0067: real time    0.0067
    MIXING:  cpu time    0.0012: real time    0.0012
    OFIELD:  cpu time    0.0000: real time    0.0000

  FORCE on cell =-STRESS in cart. coord.  units (eV):
  Direction    XX          YY          ZZ          XY          YZ          ZX
  --------------------------------------------------------------------------------------
  Alpha Z     0.01903     0.01903     0.01903
  Ewald      -3.42072    -3.42072    16.19371    -0.00000    -0.00000    -0.00000
  Hartree     7.88841     7.88841    10.20889    -0.00000    -0.00000    -0.00000
  E(xc)      -6.57007    -6.57007    -6.06530    -0.00000    -0.00000    -0.00000
  Local     -14.37595   -14.37595   -28.30301    -0.00000    -0.00000    -0.00000
  n-local    -5.62210    -5.62210    -6.66858     0.00000     0.00000     0.00000
  augment     0.29320     0.29320     0.22009     0.00000     0.00000     0.00000
  Kinetic    21.54658    21.54658    14.11627     0.00000     0.00000     0.00000
  Fock        0.00000     0.00000     0.00000     0.00000     0.00000     0.00000
  -------------------------------------------------------------------------------------
  Total      -0.24162    -0.24162    -0.27889     0.00000     0.00000    -0.00000
  in kB      -0.75610    -0.75610    -0.87273     0.00000     0.00000    -0.00000
  external pressure =       -0.79 kB  Pullay stress =        0.00 kB


 VOLUME and BASIS-vectors are now :
 -----------------------------------------------------------------------------
  energy-cutoff  :      350.00
  volume of cell :      512.00
      direct lattice vectors                 reciprocal lattice vectors
     8.000000000  0.000000000  0.000000000     0.125000000  0.000000000  0.000000000
     0.000000000  8.000000000  0.000000000     0.000000000  0.125000000  0.000000000
     0.000000000  0.000000000  8.000000000     0.000000000  0.000000000  0.125000000

  length of vectors
     8.000000000  8.000000000  8.000000000     0.125000000  0.125000000  0.125000000


 FORCES acting on ions
    electron-ion (+dipol)            ewald-force                    non-local-force                 convergence-correction
 -----------------------------------------------------------------------------------------------
   0.124E-13 0.293E-13 -.210E+02   -.177E-18 -.163E-17 0.264E+02   0.000E+00 0.000E+00 -.541E+01   0.155E-15 -.499E-15 0.285E-07
   0.124E-13 0.355E-13 0.210E+02   -.106E-17 0.220E-17 -.264E+02   -.555E-27 -.808E-27 0.541E+01   0.155E-15 -.441E-15 -.285E-07
 -----------------------------------------------------------------------------------------------
   0.248E-13 0.648E-13 0.142E-13   -.124E-17 0.570E-18 0.000E+00   -.555E-27 -.808E-27 0.000E+00   0.310E-15 -.940E-15 0.128E-15
 
 
 POSITION                                       TOTAL-FORCE (eV/Angst)
 -----------------------------------------------------------------------------------
      4.00000      4.00000      4.36858        -0.000000      0.000000     -0.034463
      4.00000      4.00000      3.63142         0.000000      0.000000      0.034463
 -----------------------------------------------------------------------------------
    total drift:                                0.000000      0.000000      0.000000


--------------------------------------------------------------------------------------------------------



  FREE ENERGIE OF THE ION-ELECTRON SYSTEM (eV)
  ---------------------------------------------------
  free  energy   TOTEN  =        -7.13330300 eV

  energy  without entropy=       -7.13330300  energy(sigma->0) =       -7.13330300
 


--------------------------------------------------------------------------------------------------------


 BEEFens 2000 ensemble energies
             -0.201142871827599E+00
             -0.188301275077631E+01
             -0.677379900392261E+00
              0.668655334066005E+00
             -0.121526013740327E+01
             -0.176329006130436E+01
              0.100389478183197E+01
             -0.360885601350142E+00
              0.135464644675133E+01
              0.171503024821300E-01
              0.673751857407817E+00
              0.725813869410619E-02
              0.147842351836502E+00
             -0.198702015743074E+00
              0.859872481484166E+00
             -0.970793368153035E+00
             -0.196251285848092E+01
             -0.582551424843987E+00
              0.310362542083251E+00
             -0.413822743908083E-01
              0.185519898045123E+01
              0.187672673425174E+01
             -0.732751998426341E+00
              0.648049540512652E+00
             -0.224027332795188E+01
              0.185642449292835E+01
              0.933361572563704E+00
              0.189181938755142E+01
              0.111460733561765E+01
             -0.745940677767692E+00
              0.587215165882359E+00
             -0.886277093396178E+00
             -0.495060680908183E-01
              0.814006075970589E+00
              0.161490550588393E+01
             -0.407331444367679E+00
              0.261815402263703E+01
             -0.101633987539042E+01
             -0.694394624854128E+00
              0.986698776820024E+00
              0.321200900733515E+00
              0.104395199180918E+01
             -0.142545725991145E+01
             -0.142096102687770E+00
              0.168061025697873E+01
              0.205226943425361E+01
             -0.184314304616275E+01
             -0.213498613800361E-02
              0.692258596568282E+00
              0.355000911161873E-02
              0.983606554605160E+00
              0.175115131287909E+01
             -0.128902586610071E+01
             -0.113820673290673E+01
             -0.144320551318247E+01
             -0.427943375100761E+00
             -0.113569576333393E+01
              0.253506648216131E-01
             -0.498950708484852E+00
             -0.117427298252660E+01
              0.188466905414821E+01
              0.152856236867600E+01
             -0.152917065209803E+00
             -0.109715767473939E+01
             -0.651849734370829E+00
             -0.479775759297481E-01
              0.114325961358686E+01
             -0.579767957496567E+00
             -0.150635071258188E+01
              0.119952074710638E+01
             -0.209384825717545E+01
              0.147976766251522E+01
             -0.202456157262083E+01
             -0.611971610811200E+00
             -0.250555930841085E+00
             -0.257515047212504E-01
             -0.232120584586836E+00
              0.138904286607411E+01
              0.847687999620731E+00
             -0.153856566861425E+01
             -0.157621922479711E+01
             -0.994699997169343E+00
             -0.116228852961129E+01
              0.198549004801235E+00
             -0.424498936512307E+00
             -0.394218294038837E+00
              0.126318883819254E+01
             -0.543784270330275E+00
              0.295647623468364E+01
             -0.138770262497449E+01
              0.359082495748662E+00
              0.105453742411775E+00
              0.428522754068636E+00
              0.115160498674408E+01
              0.773626509277167E+00
              0.767325677230869E+00
             -0.124021943617577E+01
              0.871234271669246E+00
             -0.963580891249647E-01
              0.105387268908162E+00
              0.988845367387273E+00
             -0.177439496342268E+01
              0.259319346457334E+01
             -0.710294649650762E+00
             -0.302061089961722E+01
             -0.404460401549135E+00
              0.175235647697429E+00
             -0.757576655596399E+00
             -0.132324838540953E+01
             -0.786419645440931E+00
             -0.644209360389157E+00
             -0.942640479879611E-01
             -0.105301281549880E+01
              0.325872985278868E+00
              0.658035790010945E-01
              0.279686668497763E+00
              0.283255251203745E+01
              0.130052478643915E+00
             -0.143108246471327E+01
             -0.132163889231480E+01
             -0.197831275115748E+00
             -0.920402569561835E+00
              0.156446372729311E+01
             -0.129608144106530E+01
             -0.317843250720075E+00
             -0.294325321900642E+00
              0.245130958984039E+00
              0.671619046345076E+00
             -0.143570025144985E+01
             -0.233211643416779E+01
             -0.858273786384064E+00
             -0.565829618559978E+00
             -0.310838502071215E+00
              0.814500328120532E+00
             -0.233751914816967E+01
             -0.202147013434975E+01
             -0.659681334886539E+00
             -0.645532073493539E+00
              0.332156947285272E+00
              0.299365807156047E+00
              0.128583053280339E+01
              0.522341030394726E+00
             -0.239169076630810E+00
             -0.724717140006955E+00
             -0.206918452030236E+01
              0.310370740389758E-01
             -0.103869110310910E+01
             -0.850068025285746E+00
              0.163100690824985E+01
             -0.110018783772689E+01
             -0.653914479482782E+00
              0.179081852315050E+01
              0.282094899044498E-01
             -0.351228104109247E+00
              0.222571078653417E-01
              0.945085694572289E+00
             -0.770736585810796E+00
              0.526189050188238E+00
              0.368905426844136E+00
              0.140569163574954E+01
             -0.757318964409730E+00
             -0.700255182947715E+00
              0.127362711610459E+01
              0.590543294146402E-01
             -0.595427233476317E+00
              0.341960184726116E-01
             -0.734369859840166E+00
             -0.711116436826106E+00
             -0.190657682674059E+01
             -0.193642547808094E+01
             -0.990873637546658E+00
             -0.894101089834197E+00
             -0.956967052943670E+00
             -0.142014632404925E+01
             -0.732177656505163E+00
              0.118336539789960E+01
              0.366837192810396E+00
              0.139716257038299E+01
             -0.478232660216787E+00
              0.323565191174580E+00
              0.375692299601758E-01
             -0.162610323904282E+01
             -0.109751187191873E+00
              0.106981852487189E+01
             -0.354173032567036E+01
              0.339761276527607E+00
              0.491805216156421E+00
              0.160076998973935E+01
             -0.742127097688738E+00
              0.170568699344219E+01
              0.288084039828391E+01
              0.234296378961210E+01
             -0.114900699376485E+01
             -0.893542744036721E+00
             -0.728918232563354E+00
              0.760138820671552E+00
              0.460942363484952E+00
             -0.677207579750932E+00
              0.161434336807038E+01
              0.240613779979722E+01
             -0.738362101969203E+00
             -0.491053502328066E+00
              0.198002533430431E+00
             -0.138779294789107E+01
             -0.108950039508513E+01
              0.189241855742866E+00
              0.543387471058081E+00
              0.100830462247234E+00
              0.231509380063946E+01
              0.897953080663374E+00
             -0.316288234042446E+00
             -0.407934981476240E+00
             -0.287873960382030E+01
             -0.619601826912415E+00
             -0.561367945680627E+00
             -0.415620912759081E+00
              0.125276048794084E+01
              0.261811578948503E+00
              0.190795171593057E+01
             -0.107137813979873E+01
             -0.145912278279131E+01
              0.120934411390738E+01
              0.174537262451330E+01
              0.205238922115378E+01
             -0.142604485052896E+01
             -0.834575899332968E+00
              0.128214697633202E+01
              0.882885661856809E+00
             -0.169134017908067E+01
             -0.444384170141483E+00
              0.162808158495462E+01
              0.112733753772878E+01
              0.416510646163613E+00
              0.702663732908084E+00
             -0.266930522527316E+00
             -0.236850893886632E+00
              0.677797792258024E+00
             -0.420708113059292E+00
             -0.967168694913928E+00
             -0.937719813338003E-01
             -0.692414345493140E+00
              0.686819174847062E+00
             -0.107536577803017E+01
              0.141844117320510E+01
             -0.125201626965533E+00
              0.108292830120248E+01
             -0.629922872115037E+00
             -0.187682823715033E+01
             -0.170638520464343E-01
              0.242853701686089E+00
              0.625723042962265E+00
              0.558728797411311E+00
              0.252461496660781E+00
              0.596113329284876E+00
              0.272613738779184E+01
             -0.149066943032622E+01
              0.150727563000190E+00
              0.148950264403072E+00
              0.120105044754909E+00
              0.965774384060864E+00
             -0.423925620694092E-01
             -0.843183358435469E+00
             -0.724972822561383E-01
             -0.109652991375856E+01
             -0.281879234163103E+00
             -0.133586767074593E+00
             -0.267343812393700E+01
              0.582977922376866E+00
              0.133835248532188E+01
              0.518513894273921E+00
              0.143569559096679E+01
             -0.364220582216363E+00
              0.737481410996899E+00
              0.149476233258202E+01
             -0.120817052476115E+01
              0.109996505330108E+01
              0.159897966557351E+01
             -0.799742361814977E-01
              0.109283170494885E+01
              0.146544964062632E+00
             -0.507673368965930E+00
              0.250666614784667E+00
             -0.135449225735447E+01
              0.686504337366573E+00
              0.360851070490535E+00
              0.143034553900324E+01
             -0.443447176404628E+00
              0.138718399908291E+01
              0.262306839360825E+01
              0.118446917907714E+01
             -0.116729930176760E+01
             -0.173044224110853E+00
             -0.214489363257244E+01
             -0.690679186145560E-02
              0.558315588045866E-01
             -0.183901178630170E+00
             -0.545675461912817E+00
              0.458660891650672E+00
              0.194876089123906E+01
              0.189671790777796E+00
              0.966810286816598E+00
              0.590835462068359E+00
             -0.411078273321742E+00
             -0.220380822750508E+01
              0.800922811279085E+00
              0.334853294376273E+00
              0.151356066052173E+01
             -0.481004208551133E+00
             -0.621563035533643E+00
             -0.100685319882046E+01
              0.272894757920979E+00
              0.164113153340461E+00
              0.755914376049724E+00
              0.579427721901358E+00
             -0.134256239865973E+01
              0.662746865659564E+00
              0.830582256071708E+00
              0.545607330226760E+00
              0.187599864183858E+01
              0.127745162568554E+01
              0.170456843844438E+01
             -0.362669045065172E+00
             -0.552496926015216E+00
              0.125125019168076E+01
              0.115974130318870E+01
              0.942468545925750E-01
              0.910012792340069E-01
              0.897734164533768E+00
              0.393717971792114E+00
             -0.575599745362794E+00
             -0.120934922057430E+00
             -0.216663529047965E+00
             -0.448861365201283E+00
             -0.156659540475294E+01
             -0.505969797695500E+00
              0.584761236521025E+00
              0.358322872310283E+00
              0.561850667399554E+00
             -0.148250086559362E+01
             -0.210423042913127E+01
              0.153432919848954E+00
              0.123820594249671E+01
              0.991065040627398E+00
             -0.132854093625066E+01
             -0.201077951580537E+01
             -0.646413306725553E+00
              0.890306023014395E+00
              0.459519422761118E+00
             -0.211132925881530E+00
              0.156530702860206E+01
              0.661068099162392E+00
             -0.141559203199496E+01
              0.842453816701196E+00
              0.645295170392956E+00
              0.220463025102344E+00
             -0.642198297092200E+00
             -0.107298489840521E+01
             -0.100714041830181E+01
              0.449987009127525E+00
             -0.102218076561245E-01
             -0.565501817815241E+00
              0.193081232639970E+00
             -0.629057913678211E+00
              0.397351494749279E+00
             -0.190622592599139E+01
              0.315096997417488E+00
             -0.222579332512614E+00
             -0.192754478547760E+00
              0.205452970326405E+00
              0.873540554619266E+00
              0.226804905689965E+01
              0.258365029037892E+00
             -0.645324697328030E+00
             -0.209985806060485E+01
              0.117133535524257E+01
             -0.604383485171797E+00
              0.679566416330601E+00
              0.473810702929310E+00
             -0.314398835373271E-01
              0.157904193351829E+01
              0.120229435845724E+01
             -0.219738654846277E+00
              0.156898437627823E+01
             -0.154068524204723E+01
              0.582199523518322E+00
              0.812827835033907E+00
             -0.132717850327642E+01
             -0.174260772076899E+01
             -0.188227466682280E+01
             -0.128167991697533E+01
              0.160075576046844E+01
             -0.148557067189634E+01
             -0.154733180866758E+00
              0.774851444683287E+00
             -0.100974126200923E+01
              0.105536450415686E+00
              0.348604532723237E+00
              0.945865484513645E+00
             -0.126648276728123E+01
              0.115992364048229E+01
             -0.571843180625900E+00
             -0.200735436926062E+01
              0.605162792045662E+00
             -0.458756970809218E+00
             -0.138090318340271E+01
             -0.774641860324866E+00
              0.121286687172298E+01
              0.522286540141982E+00
              0.517904395687431E+00
              0.401550460473641E+00
              0.408974094050027E+00
              0.378439597622734E+00
             -0.115036722348048E+01
              0.257946861727793E+00
             -0.276943915017623E+00
             -0.123494181802775E+01
              0.311397488625185E+00
             -0.257212534100138E+00
              0.145431187626216E+01
              0.531897883078467E+00
              0.193684998885762E+01
              0.251517922005093E+00
              0.426258321989492E+00
             -0.653762322267586E+00
             -0.381588472865554E+00
              0.135190690453094E+01
              0.454181710614766E+00
             -0.103265248216655E+01
              0.218899920370474E+01
              0.147489425238332E+01
              0.136170633826652E+01
              0.113174870231240E+01
             -0.576068722798373E-01
             -0.284581039607880E+01
             -0.331736079715843E+00
             -0.333748594475910E+00
             -0.758390070335032E+00
              0.102215302226675E+01
             -0.263946058460854E+01
              0.933887018489193E+00
              0.127980221268341E+01
             -0.661353706074488E+00
             -0.742516937738991E-02
             -0.506852715533265E+00
             -0.773309483896751E+00
              0.653566101116987E+00
              0.914164233839875E+00
             -0.269458121771216E+00
             -0.385747007198382E+00
              0.286239768980314E+00
             -0.574854331301244E-01
             -0.119800822604707E+01
             -0.687128520682548E+00
              0.157327794258232E+00
             -0.135773760238988E+01
             -0.672435924274298E+00
             -0.342394905373614E+00
             -0.154273237699393E+01
             -0.734848271917570E+00
             -0.222292771995857E+00
             -0.247067297060254E+01
              0.191967945951638E+00
             -0.232080889656454E+01
              0.111369486763955E+01
             -0.106770316816508E+01
              0.111064055161976E+01
             -0.311625304684855E+00
             -0.197579421938357E+01
             -0.669289583461434E-01
             -0.833255940562638E+00
             -0.692033867919807E+00
              0.704506105807723E+00
             -0.216086971990454E+01
              0.179709061467068E+00
              0.891282705659045E+00
             -0.197982460631300E+01
             -0.762797294124989E+00
             -0.202994856013608E+01
             -0.211326459253047E+01
             -0.165378427432508E+01
             -0.395439002458560E+00
             -0.117451886967502E+01
              0.751601454818260E+00
              0.116309308102959E+01
             -0.858296819701290E+00
              0.830803958024917E+00
             -0.737978058962528E+00
              0.766692872327685E+00
             -0.107919515584821E+01
             -0.992887120897341E+00
              0.103107873341532E+01
              0.170060291117461E+00
              0.245143415503727E+00
              0.113425537527735E+01
              0.244522542792888E+01
             -0.293571560448941E+00
              0.944687217540902E+00
             -0.211743269764681E+01
             -0.215167880064943E+01
              0.432676991172221E-03
              0.140592288565580E+00
              0.626431305731838E+00
             -0.159183790305821E+01
              0.289367467300318E+00
              0.147316741023097E+01
             -0.169503304070798E+01
             -0.455280147398993E+00
             -0.218718968222493E+01
             -0.107772358332858E-01
             -0.254852434661244E-01
             -0.154810215428704E+01
              0.307663789397171E+00
             -0.235388500165124E+01
             -0.300554866572604E+00
             -0.831710549676723E-01
              0.399154018089971E+00
             -0.169550772166463E+01
              0.108211128206334E+01
             -0.430802677265777E+00
             -0.368060406443133E+00
              0.284761953305837E-01
              0.787762122842750E+00
              0.138147549804044E+01
             -0.133028415386843E+00
              0.128411731624087E+01
              0.203021638881515E+01
              0.416330750010370E+00
             -0.275622782673830E-01
              0.851636770312260E+00
              0.828817888311355E-01
             -0.124054706823451E+00
              0.550540514788500E+00
             -0.490707416570319E+00
             -0.162719081914363E+01
              0.641049702876100E+00
             -0.122495858329426E+01
             -0.106099729649716E+01
              0.109956201280495E+00
             -0.157037648870733E+01
             -0.470903368230884E+00
             -0.225134437542137E+01
             -0.391994293521717E+00
             -0.376328600512628E+00
              0.101965516465540E+01
             -0.232687773528694E+01
              0.312165317882844E-01
             -0.197340941169206E+00
             -0.151659601994244E+01
              0.826523438848362E+00
              0.152414685665209E+01
              0.211863240232288E+00
             -0.150971943845107E+01
             -0.154378974406002E+01
              0.213828872812666E+01
              0.143008940819706E+01
              0.703195835225341E+00
             -0.680221099140571E+00
             -0.131665703033608E+01
              0.912684786312126E+00
              0.548407989314486E+00
              0.174754167694999E+01
              0.185256257422017E+01
              0.166885531819237E+01
              0.824383457377073E+00
             -0.268239554709924E+01
             -0.921457255569499E+00
              0.417445407797303E+00
             -0.637654289893447E+00
              0.141905992766732E+01
              0.983141581534676E+00
             -0.455093432221527E+00
             -0.530275771533473E-01
              0.229898756766789E+01
             -0.337393910557657E-01
             -0.234547898341439E+00
             -0.311185906592308E+01
              0.927364282766754E+00
             -0.750339491048050E+00
              0.165204325201260E+01
             -0.114933601903688E+01
             -0.294904583605112E+00
              0.713011054004539E+00
             -0.161838684682411E+01
             -0.183153182526007E+01
              0.358638440532398E+00
              0.318968901461214E+00
             -0.196808068079111E+00
             -0.344023886585346E+00
             -0.295092964170191E+00
             -0.114154056396022E+01
             -0.184262351758881E+01
             -0.349046672941588E+00
             -0.352991639784287E+00
             -0.918945710070891E-01
             -0.597596838664745E+00
              0.315429340377859E+01
              0.303388761513249E+00
             -0.113394996533173E+01
             -0.142479724955959E+01
              0.457016519579323E+00
              0.947425409757188E+00
              0.163250919487854E+01
             -0.984053418047335E+00
             -0.233449593248486E+01
             -0.417138434053345E+00
             -0.917467407573916E+00
              0.119036800855716E+01
              0.101955067477542E+01
             -0.151158285531094E+00
              0.514237388768011E+00
              0.898695511923619E+00
              0.854370726890472E+00
             -0.207510801588741E+01
             -0.610999007447910E+00
              0.554470521618501E+00
              0.443960490543441E-01
             -0.775007614400734E+00
              0.464296756684164E+00
             -0.176912517005368E+00
             -0.129509081101118E+01
             -0.757844350722384E+00
              0.159820377742265E+00
             -0.276091030533918E+01
             -0.156679944519066E+01
             -0.114143927720205E+01
              0.227465026859480E+01
             -0.293148640518749E+00
             -0.137802120379939E+00
              0.240146598674588E+01
             -0.104361140336156E+01
              0.160354062720623E+01
             -0.167784280754966E+01
              0.271455530621651E+00
              0.430327685435590E+00
              0.218762654939919E-03
             -0.148281480331609E+01
              0.497705550891409E+00
             -0.733950030104489E-01
             -0.866659030512670E+00
              0.612053676495665E+00
             -0.822712906951300E+00
             -0.224283234551473E+00
              0.236895065571693E+00
             -0.474942498302320E-01
             -0.406356742825140E+00
             -0.247719612095549E+00
              0.133455892209744E+01
              0.606075884932746E-01
              0.513233921593442E+00
             -0.116816561950191E+01
             -0.107582648710361E+00
             -0.161632540507761E+00
             -0.618315898124827E+00
              0.364326458300656E+00
             -0.116686031314248E+01
             -0.388379245919893E+00
             -0.653992874689762E+00
              0.342302894502895E-01
              0.108344839827057E+01
              0.258886193348579E+01
              0.539981647744663E-01
              0.108510755286149E+01
              0.569564908027985E-01
             -0.110088402199969E+01
              0.224884655320431E+00
             -0.118188371475373E+01
             -0.822826158559806E+00
              0.491525832195885E+00
              0.216555265143059E+01
              0.648436873872571E-01
             -0.105048346981254E+01
              0.853323496234960E+00
              0.347022704610441E+00
              0.428443317633765E+00
             -0.371456380541884E+00
             -0.135259182686115E+01
              0.338139715891889E+00
              0.212886994261208E+01
              0.862203693596068E+00
              0.312272061665692E+00
              0.265872951200303E+01
              0.113060258408346E+01
             -0.509961968756294E+00
              0.202363256118875E+01
              0.473421711958546E+00
              0.718416965773512E+00
              0.870033198927095E+00
             -0.202887321851003E+00
              0.862720893139675E+00
              0.116762350074351E+01
             -0.238370002513076E+01
             -0.157046202610481E+01
             -0.105007090183373E+01
             -0.144266444502737E+01
              0.766183074617543E+00
             -0.136213702076656E+01
              0.748425454465567E-01
             -0.114679521686247E+01
             -0.231741920229260E+01
             -0.747267567321399E+00
             -0.934608663989011E+00
             -0.303711284589123E+01
             -0.165505414010916E+01
             -0.769281572229189E+00
              0.699437521574509E+00
             -0.702192325820636E+00
             -0.102677765292309E+01
              0.945760825582418E+00
              0.111755511533163E+01
              0.197194412617596E+01
             -0.102006920219255E+00
              0.537855579710458E-01
             -0.506701241446223E+00
             -0.895924216000568E+00
              0.247339490594968E+00
             -0.110505962339997E+01
             -0.114721590800331E+01
              0.111417158324164E+01
             -0.122330027213152E+01
              0.226643967307616E+00
             -0.989947076423103E-02
              0.160898980373140E+01
             -0.574184285190698E+00
              0.256862201662532E+00
             -0.734322254641477E-01
             -0.171700483718045E+00
              0.754309915444620E+00
             -0.125447731613950E+01
             -0.546427640291855E+00
              0.205763554068353E+01
              0.191044092329030E+01
              0.206265134398406E+01
             -0.594254222246285E+00
             -0.125724849995743E+01
             -0.316805476219403E+00
             -0.117769180612712E+01
             -0.589613648667197E+00
              0.535705303818321E+00
             -0.174363772990900E+00
              0.188067018164792E+01
             -0.753563335591341E+00
             -0.233395373687233E-01
              0.365263412562641E+00
             -0.482297005158782E+00
             -0.206357509014529E+00
              0.940163058700946E+00
             -0.119462436603206E+01
             -0.373392445535790E+00
              0.502543517413033E+00
              0.132410893580598E+01
             -0.844760277043589E+00
              0.804927758168605E+00
             -0.171271485783165E+01
             -0.277759097971488E+00
             -0.211110712073451E+00
              0.481765635726352E+00
              0.561738953901278E+00
              0.205157122348453E+01
             -0.119583217624181E+01
              0.147418833865376E+01
             -0.146555984710302E+01
              0.104732547206529E+01
             -0.914093490903318E+00
              0.561662196284987E+00
             -0.106371862822302E+01
              0.666186669751839E+00
             -0.267776986351517E-01
             -0.339118740438017E+01
              0.154511799701314E+01
              0.203834661705131E-01
              0.107158740020215E+01
             -0.628662415865532E+00
              0.193165032033071E+01
              0.977102480454694E+00
              0.154626834982339E+01
              0.112488330745581E+00
             -0.511587514229319E-01
             -0.158153927306661E+01
             -0.114004014715111E+01
             -0.981673188316391E+00
              0.617287847109264E+00
             -0.189461091591113E+01
              0.108566538413764E+00
             -0.362561741385292E+00
              0.735494612602411E+00
              0.528191174772271E+00
             -0.214791805110482E+00
              0.219875815024798E+01
             -0.290311142541547E-01
             -0.105348332340413E+01
             -0.662665316530042E+00
              0.160962950337973E+01
              0.160040098255546E+01
              0.664539439565249E-01
             -0.168388258097878E+01
              0.116690887075288E+00
              0.418710311920246E+00
              0.119844538346865E+01
              0.750450944664112E+00
              0.602258342814364E+00
             -0.108907866374530E+00
             -0.258823207945385E+01
              0.947001571719807E+00
              0.517785752068988E+00
              0.100371270326184E+01
              0.835477723902935E-01
              0.450033928084697E+00
              0.344726432852004E+00
             -0.640847922184594E+00
              0.111251754575883E+01
             -0.588690020478975E+00
              0.371798855099348E+00
              0.347828584596932E+00
              0.756529600784124E+00
             -0.221198135028881E+01
             -0.311710230235501E+00
             -0.356560214399324E+00
             -0.112313688558061E+01
              0.660710753541380E-01
             -0.116208063944775E+01
              0.167183149186008E+01
             -0.264046908451333E+01
              0.925874327835837E+00
              0.247952229996597E+00
             -0.302089509190259E-01
             -0.101833571058798E+01
              0.950723473433276E+00
             -0.984007994583671E+00
             -0.640995897188205E+00
             -0.761808237903492E+00
             -0.347183915588780E+00
             -0.576667337485836E+00
             -0.796792007385529E-01
              0.821684862184471E+00
             -0.249821766361701E+00
              0.690386410232344E-01
              0.192280434536404E+01
             -0.528340280324759E+00
             -0.118082428122703E+01
             -0.179316615312612E+01
              0.122618089141147E+01
              0.689009023304939E+00
              0.422213466364825E+00
              0.495231512701246E+00
              0.138132147228019E+01
             -0.654169927859636E+00
              0.678389706131271E+00
              0.120901437618639E+00
             -0.178982568053393E+01
             -0.513471261497561E+00
              0.438017848380671E+00
              0.471157019420609E+00
              0.154937530847957E+01
             -0.312311332109016E+00
              0.125044220321293E+01
              0.386785923627209E+00
              0.108094553163537E+00
             -0.398678391347371E-01
              0.796977161183086E+00
              0.241061347741353E+01
              0.558154766151316E+00
              0.172092832148060E+01
             -0.811922534791690E+00
             -0.190623540328688E+01
             -0.750127587094934E+00
             -0.541296356181538E+00
              0.116962418514104E+01
             -0.603773849257321E-01
             -0.228523113242134E+00
             -0.895367965710591E+00
             -0.232051046060875E+00
              0.896463188982480E-01
              0.267840378377353E+00
             -0.525476949138266E+00
              0.132400785787044E+01
              0.652992512030557E+00
              0.186996971592164E+01
             -0.797584804870958E+00
              0.173255260763335E+01
             -0.954611360524451E+00
              0.172166640526059E+01
              0.241633183485552E+00
             -0.141603006503959E+01
             -0.122154191545778E+01
              0.707715735659592E-01
              0.114631325556235E+01
              0.631716800110464E+00
             -0.987992478093880E+00
              0.423952852620246E+00
             -0.641603586543631E+00
              0.151860379088095E+01
             -0.157447739275199E+00
              0.328225121745415E+00
              0.186788496295336E+01
             -0.837578893923157E-01
              0.274998836853719E+00
             -0.836579007218159E+00
             -0.582798087621943E+00
             -0.127722296962006E+01
             -0.229726859736966E+00
             -0.279598677286130E+01
             -0.185561620930283E+01
             -0.101588252537572E+01
             -0.147214762595808E+01
              0.716097267005029E+00
             -0.575776031343769E+00
              0.449944615860973E+00
             -0.869854669304203E+00
              0.112748563614995E+01
              0.140442830393033E+01
              0.121156674282761E+01
             -0.815615206212852E+00
              0.500547870055513E+00
              0.142767134470784E+01
             -0.180244936738566E+00
             -0.819424724411914E+00
             -0.172919550859703E-01
             -0.126833094916212E+01
             -0.730685845213444E+00
              0.904188974690546E+00
              0.216810672297676E+00
              0.107758019150584E+01
              0.305902795210153E-01
             -0.118579661937265E+01
              0.948951859318793E+00
             -0.222905909239412E+00
              0.600968864188962E-01
              0.129146945549122E+01
             -0.805198255864919E+00
             -0.141725792162539E-03
              0.130673415499451E+01
              0.443687980928180E+00
              0.924181776012317E+00
             -0.562035803704676E+00
             -0.108689336080357E+01
              0.509603882612637E+00
             -0.124526043079048E+01
             -0.757029827015918E+00
              0.231600806386937E+01
             -0.799670282459320E+00
              0.995067748399932E+00
              0.990313144118286E+00
              0.639087624385044E+00
              0.346454803616954E+00
             -0.195480239538612E+01
              0.144445276803245E+01
             -0.218901578395038E+01
              0.157945904326660E+01
             -0.245621525815573E+00
              0.964827197416610E+00
             -0.645357712993775E+00
             -0.123450358729221E+01
              0.412811378345530E+00
              0.131746335238343E+01
             -0.119733656663634E+01
             -0.870270449162707E+00
             -0.190279800659561E+01
              0.211774071247675E+01
              0.498852631952154E+00
             -0.935705116141746E+00
             -0.148135127380718E+00
             -0.738065880332324E+00
              0.192186345282357E+00
              0.202753350066946E+01
              0.979337453827834E+00
             -0.303126987173914E+00
              0.167688992869521E+01
             -0.108120622808506E+01
             -0.603453431705629E-01
              0.274434628251846E+01
             -0.424037541726984E-01
              0.148456094223667E+01
              0.154479071818208E+01
              0.285568437075230E+00
             -0.129217806424822E+01
              0.797402346650097E-01
              0.163528264465646E+01
             -0.159715698487972E+00
              0.127551471892982E+01
              0.125555065945741E+01
              0.112742960289059E+00
             -0.316185550840997E+00
             -0.491295268083625E-01
              0.434588165025036E+00
              0.304652063022695E-01
              0.361808385180982E-01
             -0.324305433874563E+00
              0.616182718746718E+00
             -0.413839111256721E+00
             -0.180309135178049E+01
             -0.876316650934406E+00
             -0.136429939377500E+01
              0.568144347878103E+00
              0.925107810410777E+00
              0.243875492094225E+00
             -0.116716218527430E+01
              0.982813616769170E+00
             -0.751639395420541E+00
             -0.641213567672616E+00
             -0.884912128036371E+00
              0.115847677089584E+01
             -0.157365698625227E+01
             -0.594344246035838E-01
              0.413733739621232E+00
              0.811284739165690E+00
             -0.599648193748625E-01
             -0.454498899017821E+00
              0.309026806013355E+00
              0.126822724544024E+00
              0.133674417294416E+01
              0.710423795415960E+00
              0.424510139483757E+00
              0.277131310526628E+00
             -0.462402624100827E+00
             -0.993326270246679E+00
             -0.284079583455602E+00
             -0.804665205309975E+00
             -0.161514504208654E+01
             -0.120695709357201E+00
              0.705649293732867E+00
             -0.907646431133898E+00
              0.604503952304865E+00
             -0.401958653940810E+00
             -0.461555137590109E-01
             -0.374723398514297E+00
             -0.979961304618405E+00
             -0.213875314632294E+00
              0.214655155813040E+00
              0.440437238593532E-01
              0.115873860682174E+01
             -0.151282951637336E+01
              0.723634701469482E-01
              0.434378695766873E+00
              0.113152102213655E+01
              0.404311270609712E+00
              0.219105388721147E+01
              0.134684075657699E+01
             -0.382538964390273E+00
             -0.925840484776731E+00
             -0.169714691410163E-01
             -0.105856373169772E+01
             -0.899962693969451E+00
             -0.169859127622847E+01
             -0.201031667625664E+01
              0.109416728872170E+01
             -0.864750147062477E+00
              0.362148713723458E+00
              0.110100007877873E+00
             -0.135063169289461E+01
             -0.296902180740133E+00
              0.584888640437928E+00
             -0.165510536210585E+01
              0.169126142974731E+00
             -0.118076873917294E+01
              0.763122980487533E+00
              0.703814741434627E+00
             -0.162375122385000E+00
             -0.104990220542701E+01
             -0.242262986464574E+01
              0.825122537265856E+00
              0.367483030131745E+00
              0.859502480771509E+00
              0.899062480718490E+00
             -0.387451587998657E-01
             -0.903146112374212E+00
             -0.155941921847538E+01
              0.223405658382409E+00
              0.705815871325662E+00
              0.173329321480253E+00
             -0.187944337241030E+01
             -0.110976239292568E+01
              0.701661426208546E-01
             -0.136711469505157E+01
             -0.126332728780170E+01
              0.107668711981299E+01
             -0.185249358231276E+00
             -0.136228255714132E+00
              0.461458468283735E+00
             -0.198907029764301E+00
              0.143197931555752E+01
              0.648270211084685E-01
              0.558798526437354E-01
              0.134218092902598E+01
              0.317667123094238E+00
              0.755133937077553E+00
              0.103837345605829E+01
              0.484083839420791E+00
              0.412883653101530E-01
             -0.924141989794270E+00
              0.136572618470392E+01
             -0.195587225175773E+00
              0.107010127637560E+01
              0.147189981284012E+01
             -0.719657261400792E+00
              0.174204202329943E+01
              0.123749390932143E+01
             -0.137029461846727E+01
             -0.956225977839380E+00
             -0.181617384739943E+01
              0.103599021538777E+01
             -0.562914269615165E-01
              0.450430024257540E+00
             -0.130095364006794E+01
             -0.733332709891255E+00
             -0.296713318875568E+00
              0.141448597479470E+01
             -0.290121087786020E+00
              0.460815680624911E+00
              0.307029886304305E+00
              0.126991536556814E+01
             -0.273799072036284E+00
             -0.146724785900274E-01
              0.342258191219451E+00
             -0.229241144202165E+00
              0.127597951140621E+01
              0.356728399323566E-01
              0.197313200338989E+00
              0.906676282559280E-01
             -0.415654325869902E+00
              0.178093172391410E+00
              0.690572205320895E+00
             -0.288398413374175E+01
             -0.150809737698225E+01
              0.399953937422366E+00
              0.119510735863228E+01
             -0.298794228262440E+00
              0.118272841779150E+00
              0.706612919945685E+00
              0.166487490849573E+01
              0.199950771055447E+01
              0.214660604760919E+00
              0.852614786886195E+00
              0.122951093988489E+01
              0.126257259511230E+00
              0.699046703163386E-02
             -0.173421922198788E+01
              0.743432095352205E+00
             -0.287090438129237E+00
             -0.119398565292868E+01
              0.265616991173192E+00
              0.484811364042897E+00
              0.216492142878836E+01
             -0.204257194271692E+00
             -0.684898710331573E+00
              0.110830901477954E+01
             -0.146722993733948E+01
             -0.839026487513008E+00
             -0.970052710701263E+00
              0.141675161829704E+01
              0.353369853111447E+00
             -0.445116184219264E+00
             -0.200599668175127E+01
             -0.107282023085844E+00
             -0.227839629109070E+01
              0.145635553996150E+01
              0.717487107676594E+00
             -0.454759813097261E+00
              0.738378520235701E+00
              0.122843882508313E+01
              0.229634040764337E+01
              0.116568579130275E+01
             -0.857688322680970E+00
              0.198527184231861E+01
             -0.497922568731100E+00
             -0.856303839415363E+00
              0.110571314829351E+01
             -0.202367517236162E+01
              0.112839322674088E+01
              0.449685300337078E+00
             -0.537458842340683E+00
             -0.607329846567405E+00
             -0.804325823169058E+00
              0.169547079357037E+00
             -0.438984032283581E+00
             -0.612734992792496E+00
              0.122375996014657E+01
              0.465483654705473E+00
              0.172011206632202E+01
              0.816643864465640E+00
             -0.601000013894062E+00
              0.899495129569098E+00
             -0.491634868150505E+00
              0.895284949473640E+00
              0.216624536379941E+00
             -0.141723910710347E+00
              0.268292769278814E+00
             -0.903068200520890E+00
             -0.903703649192464E-01
              0.358917452878280E+00
             -0.570395713258538E+00
             -0.104682963558304E+00
              0.591634381148817E+00
              0.119247219885642E+01
             -0.928177778346054E+00
             -0.117801477074481E+01
             -0.257661013517616E+01
              0.615516070270493E+00
             -0.665381889862422E+00
              0.208925956010633E+00
             -0.107453917611494E+01
             -0.313993612132966E+00
              0.185887317812927E+00
             -0.142972978206379E+01
              0.276376438154800E+00
              0.462092461472182E+00
              0.591853911799178E+00
             -0.823958990639376E+00
              0.335116297399568E+00
             -0.114149309734798E+00
              0.149186642999470E+01
             -0.347894641028836E+00
              0.465271366984774E+00
              0.578843449326844E+00
             -0.642828064587828E+00
             -0.157908059146274E+01
             -0.220803561080625E+00
             -0.661387898940933E-01
              0.253688215935694E+00
              0.751269714087959E+00
             -0.214718545959966E+00
             -0.121882918279395E+01
              0.193264202763780E+00
             -0.686421988566200E+00
             -0.219566704162901E+01
             -0.202240568246167E+01
              0.161615572740106E+01
             -0.109636203227205E+01
             -0.955424677336767E+00
             -0.114948218864716E+01
             -0.201384096159498E-01
              0.317493051893360E+00
             -0.106517157659771E+01
              0.549187599834215E+00
              0.341397747250649E+00
              0.454176428952005E+00
             -0.130213255216615E+01
             -0.749814280910817E+00
             -0.107865582769780E+01
             -0.127270217558033E+00
              0.494105695819520E+00
             -0.546215003056369E+00
              0.478787528679920E+00
              0.110485282140181E+01
              0.217897537586991E+00
             -0.676345501316189E+00
              0.124385639389765E+01
             -0.114904803656207E+01
              0.228525625900855E+00
             -0.489938246925821E+00
             -0.504443585405201E+00
              0.362394341374821E+00
             -0.173059366521326E+01
             -0.256976195914750E+01
              0.110930567170054E+01
              0.100263208254780E+01
             -0.763858800648514E-01
             -0.100130961359414E+01
              0.814667111859446E-01
             -0.384218758226095E+00
              0.138500856892005E+01
             -0.173593953368754E+00
              0.102964373795656E+01
              0.933769615123869E+00
              0.607834911975068E+00
             -0.119953686295093E+01
              0.190236424200814E+01
             -0.618049467355262E-01
              0.647607964046731E+00
             -0.224082439971883E+00
             -0.848213735958539E+00
             -0.260502659619001E+00
             -0.114372392315331E+00
              0.177117565982135E+00
              0.228797471278731E+01
             -0.194729054491838E+01
             -0.779959309086772E+00
             -0.161320174382204E+00
             -0.173942063506512E+01
             -0.134982201125749E+01
             -0.108319702516411E+01
              0.100488690693135E+01
             -0.689144910117018E+00
             -0.506223479776382E+00
              0.152788703104881E+01
              0.988939076325913E+00
             -0.592317613222091E+00
              0.533895213722321E+00
             -0.328332746311500E+00
              0.152008839687472E+01
              0.512737338317487E+00
              0.224114441369899E+01
              0.109507419743323E+01
             -0.124579446189061E+01
             -0.208535537049421E+01
              0.150584847272086E+01
             -0.223945184546931E+00
             -0.134389254533000E+00
              0.485851988569257E+00
             -0.149992419242374E+01
             -0.862315332253202E+00
              0.294014118422223E+00
             -0.313420837472649E-01
             -0.594001545668392E+00
              0.484661544509322E+00
             -0.446419339661272E+00
             -0.117453905987528E+01
              0.604994759237496E+00
              0.189718706657439E+01
             -0.671646817483406E+00
              0.796329148391584E+00
[...]
             -0.796095651536174E+00
             -0.146286191833898E+01
              0.270371857601739E+00
             -0.159269927095592E+01
              0.781240448148116E+00
              0.100813587796478E+01
              0.211137022438161E+00
              0.562010707858665E+00
              0.306108618136854E+00
             -0.171439201845395E+01
              0.234918694544091E+01
              0.362399056221978E-01
             -0.146762922675732E+00
             -0.252046240784861E+01
             -0.783176477268149E+00
              0.105887033879290E+00
              0.116396642740313E+01
              0.602418070665552E+00
              0.824283132409383E+00
              0.167931394818144E+01
             -0.633269856133817E+00
              0.734436665522598E+00
              0.143008456865190E+01
              0.744034571475601E-01
              0.991328345004425E+00
             -0.175885490237335E+01
              0.361265348672841E-01
              0.243564863482782E+01
              0.767002667640254E+00
             -0.132024235473899E+01
              0.315068506341309E+00
             -0.118049256275929E+01
             -0.908484315170661E+00
             -0.886209243793597E+00
             -0.723005967283002E-01
              0.573113915492785E+00
             -0.174136711529281E+01
             -0.144613176614053E+00
              0.241436185747010E-01
             -0.108608196062956E+01
             -0.215453435828787E+01
             -0.167800779761264E+01
              0.183626195145279E+01
             -0.823018341355480E+00
              0.860267495445052E+00
              0.380098492692239E+00
             -0.130756844303507E+00
             -0.293660311179149E+00
              0.658664635455677E+00
              0.127458277805642E+01
              0.155791625714415E+01
              0.460070914006208E+00
             -0.185007048689051E+00
              0.327757190095147E+00
              0.861950671078361E+00
              0.320811290194998E+00
              0.191323015606242E+01
              0.291178096959993E+01
             -0.916090133068617E+00
             -0.109006254397445E+01
             -0.184533032947805E+01
              0.167115203855480E+00
             -0.345561011136095E+00
              0.129301335079194E+01
              0.124550362959454E+00
              0.863728205688316E+00
              0.379609695977732E+00
              0.647326943775980E+00
              0.360999804649228E+00
              0.244928459878035E+01
              0.452628813930650E+00
             -0.402171339066131E+00
              0.445454085034562E+00
             -0.475162851178643E+00
              0.192558235711342E+01
              0.480329383748701E-01
              0.330489926593972E+00
              0.130052657076716E+01
              0.540850012230160E+00
             -0.992960730918821E+00
             -0.158701330074499E+01
             -0.837999391829714E-01
             -0.196722334072335E+01
              0.573696833406157E+00
             -0.232173306912730E-01
             -0.676345118951417E+00
              0.493456256936694E+00
              0.200045928564174E+00
              0.574512511528667E+00
             -0.125146016715902E+00
              0.101502580599192E+01
             -0.179630440225997E+01
             -0.163279821888741E+00
             -0.187860545311561E+01
              0.472868544875469E+00
              0.727505455755631E+00
             -0.248815486840086E+00
             -0.562710354656503E+00
              0.157747381603979E+01
             -0.582559098468076E+00
              0.427763211869335E+00
             -0.265046481235722E+00
              0.109680234388355E+01
              0.746575636944210E+00
             -0.589110747713579E+00
              0.931693963224120E+00
              0.507192743716989E+00
             -0.107105539962416E+01
             -0.492564928710176E+00
              0.161527597588839E+01
              0.694517359002331E+00
              0.173626977633043E+00
             -0.279516369275796E+00
              0.237714565400732E+01
              0.128205818310733E+01
              0.411702558068030E+00
             -0.201375259298602E+01
              0.224006411839828E+01
             -0.125304781111087E+01
             -0.149125617205025E+01
             -0.208388381986316E+01
              0.100673077559681E+01
             -0.179528726811800E+01
              0.595956283308988E+00
              0.172232062574110E+01
              0.854951191715673E+00
              0.426938922070786E+00
              0.370033334712421E+00
             -0.154348820771033E+01
             -0.456354308466920E+00
             -0.747884107474124E+00
              0.732327112028692E+00
              0.146882882576509E+01
              0.153201992216851E+01
              0.144639216687139E+01
             -0.547229483229353E+00
              0.389163934596978E+00
             -0.131539083350883E+00
             -0.513177934763023E+00
              0.450004895490167E+00
              0.595878564544995E+00
             -0.735538595708928E+00
             -0.922966465954302E+00
             -0.634561618624146E+00
              0.145280479635784E+01
              0.736007686905244E+00
             -0.869186098169943E+00
             -0.110486351821419E+01
             -0.140602538687438E+01
             -0.170985495566590E+00
              0.203079822338788E+00
             -0.510904904090211E+00
              0.227884949561353E+01
              0.303910911560155E+00
             -0.300816079085757E+01
              0.767523091108795E+00
              0.129023447333486E+01
             -0.499238592224047E+00
              0.674549399492630E-03
             -0.744675704738737E+00
              0.110646892688828E+01
              0.412754201374460E+00
             -0.146464723467440E+01
              0.172981954003474E+01
             -0.256771433387033E+00
             -0.897392864814872E+00
             -0.918248356703484E+00
              0.341588878107263E+01
              0.159983011619585E+01
             -0.121656145034285E+00
              0.101997767924610E+01
             -0.117756007929062E+01
             -0.191985931328040E+00
             -0.150965253247484E+01
              0.635616990437641E+00
              0.679218945742594E+00
              0.119143671593735E+01
             -0.544798716856085E+00
              0.218363887235948E+00
              0.118615371999166E+01
              0.544604772215798E+00
              0.912889412192663E+00
              0.390322618300720E+00
             -0.181738320201604E+00
             -0.164091010906503E+00
             -0.251755708624776E+00
              0.371161012558249E+00
              0.129067975289314E+00
             -0.917636532553091E+00
              0.207312066265867E+01
              0.835224497892770E+00
             -0.123469351328842E+01
             -0.837599015356741E+00
             -0.141449953796888E+01
             -0.873403251041362E+00
             -0.330103727310846E+00
             -0.118312883073263E+01
             -0.115840950557850E+01
              0.199074095529135E+01
              0.117337709644806E+01
             -0.318430966700493E+00
              0.143305290209028E+01
              0.387749070514563E+00
             -0.267588878150685E+01
              0.115520663609256E+01
              0.204274266443700E+00
              0.116527286192832E+01
              0.264092992446231E+00
              0.376925331868078E+00
              0.435201660454398E+00
              0.767944760697522E+00
             -0.813001868396014E+00
             -0.459522598806258E+00
             -0.830366512789468E+00
             -0.397950939311481E+00
              0.554646806566112E+00
             -0.983961873603693E+00
              0.196820128705359E+00
              0.523648440624335E+00
             -0.604672992038905E+00
             -0.378427683380767E+00
              0.655309452112797E-01
              0.187251822600144E+01
              0.445830441539057E-01
              0.196034827127689E+01
              0.321174205034020E+00
             -0.197491523637719E+01
             -0.888436323987826E+00
              0.758477857196698E+00
              0.128693544256423E+01
              0.535752428181588E+00
              0.481449553874235E+00
              0.140625076981980E+01
             -0.108912486709903E+01
             -0.142444437715207E+01
              0.161942157298634E+01
             -0.228510461865085E+00
             -0.217434595629049E+01
              0.953401006392800E+00
              0.131351069495669E+01
              0.896260102329034E-01
             -0.962985194980520E+00
             -0.177798293557691E+00
              0.353826294518971E+00
             -0.592600917506268E+00
              0.585634703179760E+00
             -0.215735847198128E+00
              0.268409459335256E+01
              0.609088849229377E+00
             -0.155038908781136E+01
              0.495974429228208E+00
              0.176405103548433E+01
             -0.965796502960286E+00
             -0.679641080424988E+00
             -0.100633313858845E+01
              0.707583954603201E+00
              0.464579711583195E+00
              0.316480118335238E+00
              0.642314129720245E-02
              0.167442586447249E+01
             -0.159974897891207E+01
             -0.954797862328391E+00
             -0.681688998190017E+00
              0.103840700392111E+01
              0.168766107621885E+01
              0.648395188429050E-01
              0.733663599867177E+00
             -0.111435139060132E+01
             -0.223973217915920E+00
             -0.185559662974230E+00
             -0.173583293429243E+00
             -0.532699416380533E+00
             -0.429084847056635E+00
             -0.436283352299700E+00
              0.674338670054538E+00
              0.542489427709650E+00
             -0.132298700976295E+01
              0.987285109916751E+00
             -0.129447120366360E+01
              0.116783874509439E+01
             -0.134454449073596E+01
              0.250182120514690E+01
              0.133866922812138E+01
              0.908781098699419E+00
              0.964662457714258E-01
              0.195850926300375E+00
             -0.273152977721461E+01
              0.528896439372478E+00
             -0.188601169830740E-01
              0.483453941918732E-03
             -0.479556435844181E+00
              0.188053065183237E+01
             -0.791912975590154E+00
             -0.601706781909600E+00
             -0.224062521495104E+01
             -0.998644084403670E+00
             -0.776823473309122E+00
             -0.106963816663013E+01
             -0.320944461153744E+00
             -0.290191521376846E+00
             -0.643402312840267E+00
             -0.852613782720075E+00
              0.670834097237539E+00
              0.208371226137958E+01
              0.196465027887386E+01
             -0.764966365051034E+00
             -0.234830415565666E+01
             -0.112334236380263E+01
              0.657407504014625E+00
              0.350973594765000E+00
              0.610050004093853E+00
              0.800028366670903E+00
              0.903163441989814E-01
              0.194932335164153E+01
             -0.473090465198234E+00
              0.124574754553725E+01
              0.526297430180029E+00
             -0.883301231485632E+00
             -0.519295843134815E+00
              0.106110581684877E+01
             -0.441042967190739E+00
             -0.338319219205946E+00
             -0.206256391253246E+00
              0.135416108798640E+01
             -0.160016423272889E+01
             -0.451833960096306E+00
             -0.159123198788093E+01
             -0.293983235025141E+01
              0.321349029026219E+00
             -0.439728770546597E+00
              0.116840792050096E+01
              0.114731360572783E+01
              0.143632917915968E+01
             -0.836886600177013E+00
              0.155769797361859E+01
              0.384146803898580E+00
             -0.320279905388088E+00
              0.188305776752540E+00
             -0.676724954277882E+00
             -0.352699827215212E+00
              0.961522759555342E+00
             -0.892451431151889E+00
              0.215191196193714E+01
             -0.432594315132192E+00
             -0.136436910529109E+01
              0.248977100503630E+01
             -0.145943124665431E+01
             -0.349245019118695E+00
              0.739477137457292E-01
              0.442910684619698E+00
             -0.110978665565543E+01
             -0.843756322726988E+00
              0.986866532077197E+00
             -0.204659868384197E+01
              0.143194271368507E+01
              0.476899416184747E+00
              0.957478638090826E+00
              0.145832010951592E+01
              0.223267487537023E+00
             -0.156913269050869E+01
             -0.865063986554036E+00
             -0.135224496851631E+01
             -0.832306633027173E+00
             -0.662706538062785E+00
              0.605852880248058E-01
             -0.256614401102873E+00
              0.264381397985167E+00
             -0.238050273776659E+01
              0.125992445475895E-01
             -0.159970524769976E+01
              0.109935609085928E+01
             -0.360655772522786E+00
             -0.197601053588483E+00
              0.855203274752508E+00
              0.771099888397140E-01
              0.972080799357121E+00
             -0.160648796426151E+01
              0.204358636002679E+00
              0.339241170305021E+00
              0.553373172078193E+00
              0.115649011939838E+01
              0.477131060680358E-01
             -0.169795403206471E+01
             -0.924350118016333E+00
             -0.480475519290938E+00
             -0.364807289847397E+00
              0.135151694142622E+01
              0.110802259494544E+01
             -0.819294807995507E+00
             -0.876137513124521E+00
              0.946686238155711E+00
              0.600125152714879E+00
             -0.163565077896623E+01
              0.544332788614204E+00
              0.122629537151648E+01
             -0.158026604020741E+00
              0.158190514957199E+01
              0.747830573915893E+00
              0.115738419056326E+01
              0.125917449371723E+01
             -0.383343758614927E-01
             -0.270156114732477E+01
              0.236761365711963E+00
              0.277054032477293E+01
              0.181950322220111E+01
             -0.142786223534106E+01
              0.849950132010927E-01
              0.139633464155689E+01
              0.135754070071500E+01
              0.327329599862926E+00
             -0.449714613614268E+00
              0.414844023263823E+00
              0.184527631498186E+01
             -0.443846573934001E+00
             -0.590111036024414E+00
              0.905645289208412E+00
             -0.168593856930538E+00
              0.907522848348706E+00
              0.160107216743836E+00
              0.160365962357650E+01
             -0.604919413416475E+00
              0.715368031272834E-01
             -0.108562426868701E+01
              0.676838847489020E+00
             -0.199074127944610E-01
              0.139429992101746E+01
             -0.267424007900934E+00
              0.375011528783356E+00
             -0.885672524134775E+00
             -0.633888625075570E+00
             -0.471156163038435E+00
             -0.188913562083546E+00
              0.152153252058746E+01
              0.437167528389604E+00
              0.181536727936780E+01
              0.969484362320680E+00
              0.105252689023493E+00
             -0.501451271997833E-01
              0.173382845588985E+01
              0.108845162022100E+01
              0.215044373208968E+00
              0.186595445515282E+01
             -0.132928657639831E+01
              0.743181539300962E+00
             -0.835359576357741E+00
             -0.658880667218424E+00
              0.215057833454146E+01
             -0.375665676926273E+00
             -0.155577122548312E+00
             -0.426682952148954E+00
              0.171914324673212E+01
             -0.529191426449642E+00
              0.529491004856706E-01
              0.341384215060172E+01
             -0.116655099192160E+01
             -0.752234655130801E+00
             -0.139603177363730E+01
             -0.536223927912533E+00
              0.744801014159768E+00
             -0.285701583134423E+00
              0.432669510835441E+00
              0.148602509494093E+00
              0.463817069131207E+00
              0.642516122327724E+00
              0.658152571630485E+00
              0.174822503091133E+01
              0.709762970950671E+00
              0.989134531127428E+00
             -0.150357306806873E+01
             -0.109247424352190E+01
             -0.550452199139930E+00
             -0.125556521289739E+01
              0.240360048510319E+01
              0.190256324586631E+01
              0.993161013764102E+00
              0.216405077167505E+01
             -0.110597531379437E+01
             -0.869660881440101E+00
             -0.491731192443547E+00
              0.190977707260072E+01
 BEEF xc energy contributions
            1 :    -15.52104846016589     
            2 :     10.38976860707914     
            3 :    -4.747429161215967     
            4 :     1.302951448992721     
            5 :    4.3701810478181780E-002
            6 :   -0.1946215212633703     
            7 :   -1.3167876893287744E-003
            8 :    9.1913924411200720E-002
            9 :   -3.7746458504587535E-002
           10 :   -1.6618668987354285E-002
           11 :    6.3731339696611364E-002
           12 :   -0.1227692612983736     
           13 :    0.1296647417516798     
           14 :   -7.0158819248198015E-002
           15 :   -4.9224245826242352E-003
           16 :    9.9586747212806678E-003
           17 :    5.1223385865396043E-002
           18 :   -6.8323170388530294E-002
           19 :    3.4846582998999412E-002
           20 :   -1.2536198582496258E-002
           21 :    9.2217579928842164E-003
           22 :   -2.3834574469639064E-002
           23 :    5.2832375291091915E-002
           24 :   -6.2905289950707821E-002
           25 :    4.7317655839702238E-002
           26 :   -3.0831973576065333E-002
           27 :    1.3139220837285377E-002
           28 :    2.8487471543179120E-002
           29 :   -8.7994228482416517E-002
           30 :    0.1369059431653645     
           31 :    -2.578754751606805     
           32 :    -1.203450541026883     
    POTLOK:  cpu time    1.6852: real time    1.7320


--------------------------------------------------------------------------------------------------------


 writing wavefunctions
     LOOP+:  cpu time    4.6419: real time    4.7562
    4ORBIT:  cpu time    0.0000: real time    0.0000

 total amount of memory used by VASP MPI-rank0    36188. kBytes
=======================================================================

   base      :      30000. kBytes
   nonl-proj :        542. kBytes
   fftplans  :       1377. kBytes
   grid      :       4147. kBytes
   one-center:          2. kBytes
   wavefun   :        120. kBytes
 
  
  
 General timing and accounting informations for this job:
 ========================================================
  
                  Total CPU time used (sec):        6.258
                            User time (sec):        5.923
                          System time (sec):        0.335
                         Elapsed time (sec):       10.638
  
                   Maximum memory used (kb):      145360.
                   Average memory used (kb):          N/A
  
                          Minor page faults:        47873
                          Major page faults:          417
                 Voluntary context switches:        30933
